ITEM: TIMESTEP
0
ITEM: NUMBER OF ATOMS
834
ITEM: BOX BOUNDS pp pp pp
0.0000000000000000e+00 2.0308820000000001e+01
0.0000000000000000e+00 2.0308820000000001e+01
0.0000000000000000e+00 2.0000000000000000e+01
ITEM: ATOMS id mol type q xs ys zs 
1 1 2 -0.806 0.114346 0.165407 0.0678007 
2 1 1 0.403 0.112483 0.120554 0.0866995 
335 112 1 0.403 0.081787 0.125147 0.454593 
4 2 2 -0.806 0.300771 0.228213 0.0334622 
5 2 1 0.403 0.326655 0.267771 0.0222027 
6 2 1 0.403 0.256603 0.248579 0.0324145 
7 3 2 -0.806 0.108573 0.0485884 0.132265 
8 3 1 0.403 0.0797046 0.0642505 0.168864 
9 3 1 0.403 0.0975619 0.00120239 0.133601 
373 125 2 -0.806 0.236137 0.09454 0.457189 
345 115 1 0.403 0.393945 0.43662 0.486684 
13 5 2 -0.806 0.410928 0.444539 0.162344 
14 5 1 0.403 0.372485 0.426645 0.186999 
15 5 1 0.403 0.387525 0.452921 0.119669 
353 118 1 0.403 0.0389542 0.361622 0.477432 
18 6 1 0.403 0.462338 0.374844 0.15609 
19 7 2 -0.806 0.296719 0.396873 0.210574 
20 7 1 0.403 0.303416 0.384459 0.257871 
21 7 1 0.403 0.264125 0.362931 0.197598 
22 8 2 -0.806 0.476563 0.382861 0.0131979 
376 126 2 -0.806 0.328478 0.00842777 0.415117 
360 120 1 0.403 0.00536152 0.19238 0.495413 
25 9 2 -0.806 0.0747603 0.434377 0.137418 
26 9 1 0.403 0.0849812 0.428743 0.185232 
27 9 1 0.403 0.0961884 0.477286 0.129057 
84 28 1 0.403 0.00180178 0.09862 0.268648 
29 10 1 0.403 0.268289 0.470781 0.177435 
185 62 1 0.403 0.0188728 0.310896 0.364254 
31 11 2 -0.806 0.0829537 0.251142 0.163985 
32 11 1 0.403 0.098255 0.221042 0.1281 
33 11 1 0.403 0.035182 0.243933 0.158488 
34 12 2 -0.806 0.205772 0.30709 0.166031 
35 12 1 0.403 0.203826 0.31679 0.117587 
36 12 1 0.403 0.160323 0.290654 0.172078 
37 13 2 -0.806 0.305602 0.218826 0.172489 
38 13 1 0.403 0.310794 0.210067 0.124336 
39 13 1 0.403 0.266042 0.246948 0.170692 
40 14 2 -0.806 0.382946 0.111165 0.343088 
41 14 1 0.403 0.370882 0.0895677 0.300477 
42 14 1 0.403 0.369836 0.156606 0.3319 
43 15 2 -0.806 0.351158 0.0614285 0.22181 
44 15 1 0.403 0.311548 0.0643529 0.19318 
45 15 1 0.403 0.382854 0.0855225 0.193437 
358 120 2 -0.806 0.0461264 0.201835 0.470432 
47 16 1 0.403 0.485012 0.0471253 0.206372 
374 125 1 0.403 0.191409 0.0785364 0.446598 
49 17 2 -0.806 0.215622 0.328996 0.0337731 
50 17 1 0.403 0.254616 0.34997 0.014034 
51 17 1 0.403 0.181208 0.360036 0.0187645 
52 18 2 -0.806 0.348119 0.352975 0.0014731 
53 18 1 0.403 0.341995 0.396628 0.0228199 
54 18 1 0.403 0.39687 0.352333 0.00254552 
55 19 2 -0.806 0.244759 0.0431179 0.138286 
59 20 1 0.403 0.33775 0.0561586 0.0153665 
57 19 1 0.403 0.198595 0.0572764 0.132396 
58 20 2 -0.806 0.338101 0.0174623 0.0454656 
93 31 1 0.403 0.436967 0.494285 0.240515 
60 20 1 0.403 0.302399 0.0302394 0.0765867 
61 21 2 -0.806 0.0708607 0.287051 0.294069 
62 21 1 0.403 0.0862542 0.243913 0.310743 
63 21 1 0.403 0.0721124 0.276479 0.24582 
64 22 2 -0.806 0.119845 0.163385 0.322077 
65 22 1 0.403 0.116148 0.130019 0.357467 
66 22 1 0.403 0.16592 0.177191 0.329108 
67 23 2 -0.806 0.343144 0.232914 0.298907 
68 23 1 0.403 0.328126 0.225649 0.252184 
69 23 1 0.403 0.300679 0.225758 0.322319 
70 24 2 -0.806 0.4685 0.238559 0.237548 
71 24 1 0.403 0.464982 0.275146 0.205164 
72 24 1 0.403 0.427783 0.245129 0.263575 
73 25 2 -0.806 0.128387 0.426555 0.0134935 
74 25 1 0.403 0.100307 0.417187 0.0526265 
75 25 1 0.403 0.138558 0.472949 0.02417 
76 26 2 -0.806 0.334608 0.472347 0.055957 
77 26 1 0.403 0.302245 0.49711 0.083017 
184 62 2 -0.806 0.00510274 0.316901 0.411267 
79 27 2 -0.806 0.0918098 0.418633 0.277779 
80 27 1 0.403 0.0837848 0.371091 0.285589 
81 27 1 0.403 0.136087 0.420973 0.298661 
82 28 2 -0.806 0.0340239 0.102168 0.23176 
83 28 1 0.403 0.0675711 0.128867 0.255007 
378 126 1 0.403 0.299552 0.0364636 0.442942 
783 261 1 0.403 0.203181 0.434141 0.392659 
17 6 1 0.403 0.474606 0.341268 0.0912316 
3 1 1 0.403 0.116804 0.15577 0.020134 
782 261 1 0.403 0.247097 0.399011 0.34425 
752 251 1 0.403 0.462152 0.164188 0.196284 
331 111 2 -0.806 0.23936 0.199354 0.376235 
332 111 1 0.403 0.22227 0.220996 0.416941 
333 111 1 0.403 0.252326 0.157089 0.396843 
334 112 2 -0.806 0.104147 0.0832754 0.443254 
372 124 1 0.403 0.352333 0.379996 0.376123 
336 112 1 0.403 0.0644564 0.0552361 0.438575 
337 113 2 -0.806 0.498092 0.152105 0.397392 
293 98 1 0.403 0.361447 0.496003 0.40874 
339 113 1 0.403 0.455353 0.136449 0.379746 
366 122 1 0.403 0.473457 0.158869 0.479279 
751 251 2 -0.806 0.462944 0.121216 0.173207 
343 115 2 -0.806 0.399919 0.411417 0.444618 
344 115 1 0.403 0.401402 0.366674 0.464813 
16 6 2 -0.806 0.480395 0.332749 0.139552 
349 117 2 -0.806 0.426782 0.28796 0.48234 
350 117 1 0.403 0.472921 0.279981 0.470254 
753 251 1 0.403 0.493615 0.132296 0.136543 
56 19 1 0.403 0.235773 0.00169126 0.162813 
355 119 2 -0.806 0.197897 0.463734 0.471044 
356 119 1 0.403 0.154718 0.464772 0.493579 
377 126 1 0.403 0.355559 0.043398 0.394688 
359 120 1 0.403 0.0320947 0.242767 0.44762 
194 65 1 0.403 0.483147 0.408834 0.412865 
781 261 2 -0.806 0.207458 0.427224 0.343755 
369 123 1 0.403 0.499467 0.00569312 0.47106 
370 124 2 -0.806 0.324809 0.363076 0.33918 
371 124 1 0.403 0.340334 0.317145 0.337416 
375 125 1 0.403 0.223907 0.130546 0.488014 
362 121 1 0.403 0.13014 0.210179 0.487678 
672 224 1 0.403 0.000211952 0.395991 0.117594 
341 114 1 0.403 0.33611 0.429465 0.565351 
346 116 2 -0.806 0.291518 0.360917 0.565733 
347 116 1 0.403 0.302057 0.315955 0.580638 
348 116 1 0.403 0.243349 0.360608 0.571527 
351 117 1 0.403 0.417214 0.247325 0.507096 
517 173 2 -0.806 0.456609 0.469658 0.912394 
354 118 1 0.403 0.0505296 0.424988 0.515375 
762 254 1 0.403 0.124393 0.367248 0.566402 
363 121 1 0.403 0.170696 0.213696 0.549677 
364 122 2 -0.806 0.455417 0.15483 0.524908 
365 122 1 0.403 0.460005 0.106469 0.52849 
666 222 1 0.403 0.0400611 0.251706 0.759604 
729 243 1 0.403 0.128483 0.0590119 0.530427 
340 114 2 -0.806 0.3636 0.469578 0.560406 
761 254 1 0.403 0.147408 0.313007 0.611778 
518 173 1 0.403 0.472445 0.493519 0.872258 
361 121 2 -0.806 0.176732 0.206693 0.501248 
380 127 1 0.403 0.0446198 0.251698 0.591571 
381 127 1 0.403 0.0187507 0.318741 0.573425 
382 128 2 -0.806 0.129196 0.229339 0.62976 
383 128 1 0.403 0.0956898 0.21232 0.661355 
384 128 1 0.403 0.164704 0.236334 0.663078 
385 129 2 -0.806 0.31111 0.243587 0.631909 
386 129 1 0.403 0.278233 0.24864 0.667935 
387 129 1 0.403 0.299356 0.198726 0.617263 
388 130 2 -0.806 0.480329 0.185699 0.65267 
389 130 1 0.403 0.463244 0.177367 0.607074 
525 175 1 0.403 0.472685 0.358377 0.807144 
394 132 2 -0.806 0.186433 0.464669 0.672691 
395 132 1 0.403 0.212491 0.445189 0.70949 
396 132 1 0.403 0.175455 0.423664 0.648561 
397 133 2 -0.806 0.0161251 0.101738 0.614998 
398 133 1 0.403 0.0615447 0.0864699 0.607022 
399 133 1 0.403 0.0137385 0.0951615 0.663708 
352 118 2 -0.806 0.0541742 0.376711 0.52181 
520 174 2 -0.806 0.322518 0.343503 0.867418 
521 174 1 0.403 0.329728 0.3513 0.9155 
522 174 1 0.403 0.36896 0.337258 0.854 
523 175 2 -0.806 0.455655 0.349951 0.852607 
524 175 1 0.403 0.459213 0.394491 0.872038 
23 8 1 0.403 0.468466 0.415224 0.977052 
526 176 2 -0.806 0.212198 0.270065 0.855181 
527 176 1 0.403 0.179686 0.303774 0.86906 
528 176 1 0.403 0.252859 0.295992 0.861906 
529 177 2 -0.806 0.138747 0.380142 0.885818 
530 177 1 0.403 0.128999 0.397192 0.931017 
531 177 1 0.403 0.14799 0.423061 0.86399 
665 222 1 0.403 0.00427457 0.247638 0.693774 
367 123 2 -0.806 0.48964 0.0271081 0.514292 
570 190 1 0.403 0.489068 0.220578 0.820778 
571 191 2 -0.806 0.328643 0.11967 0.959215 
572 191 1 0.403 0.319241 0.159306 0.986376 
573 191 1 0.403 0.291759 0.122531 0.927023 
574 192 2 -0.806 0.443002 0.110972 0.882215 
575 192 1 0.403 0.425768 0.139519 0.846556 
576 192 1 0.403 0.405633 0.112053 0.913652 
577 193 2 -0.806 0.23502 0.138679 0.862784 
578 193 1 0.403 0.259747 0.134411 0.820398 
579 193 1 0.403 0.22349 0.186001 0.860913 
580 194 2 -0.806 0.115863 0.0726431 0.847787 
581 194 1 0.403 0.157639 0.0962172 0.855243 
582 194 1 0.403 0.125914 0.0309979 0.870864 
760 254 2 -0.806 0.161176 0.357126 0.597092 
624 208 1 0.403 0.397637 0.427641 0.692055 
625 209 2 -0.806 0.267282 0.388233 0.750115 
626 209 1 0.403 0.281156 0.383586 0.797184 
627 209 1 0.403 0.309842 0.378215 0.728408 
628 210 2 -0.806 0.382666 0.343855 0.697441 
629 210 1 0.403 0.368651 0.306886 0.66876 
630 210 1 0.403 0.427961 0.330012 0.708436 
631 211 2 -0.806 0.214711 0.269371 0.721279 
632 211 1 0.403 0.207146 0.259309 0.769053 
633 211 1 0.403 0.224604 0.316822 0.726564 
634 212 2 -0.806 0.0439782 0.311034 0.816088 
635 212 1 0.403 0.0755733 0.337488 0.842047 
636 212 1 0.403 0.00325997 0.336663 0.823627 
649 217 2 -0.806 0.420194 0.191856 0.77524 
650 217 1 0.403 0.437839 0.194622 0.729259 
651 217 1 0.403 0.374442 0.178921 0.764732 
652 218 2 -0.806 0.306538 0.125245 0.746068 
653 218 1 0.403 0.280987 0.127197 0.704091 
654 218 1 0.403 0.333405 0.0859036 0.735759 
655 219 2 -0.806 0.388002 0.0295468 0.696116 
664 222 2 -0.806 0.032951 0.220347 0.722084 
657 219 1 0.403 0.433216 0.0471777 0.691957 
658 220 2 -0.806 0.252304 0.11909 0.62037 
659 220 1 0.403 0.205845 0.106644 0.612688 
660 220 1 0.403 0.27318 0.0800188 0.599854 
661 221 2 -0.806 0.0219288 0.0920464 0.753759 
662 221 1 0.403 0.0277403 0.140213 0.748946 
663 221 1 0.403 0.0562305 0.0838474 0.788183 
727 243 2 -0.806 0.137856 0.0579267 0.57865 
379 127 2 -0.806 0.00314512 0.276566 0.592361 
722 241 1 0.403 0.334393 0.010616 0.632228 
810 270 1 0.403 0.467759 0.0137766 0.944392 
357 119 1 0.403 0.225151 0.482321 0.507495 
623 208 1 0.403 0.401488 0.481512 0.641352 
622 208 2 -0.806 0.404739 0.475707 0.690371 
728 243 1 0.403 0.151017 0.0112401 0.583314 
390 130 1 0.403 0.498127 0.141453 0.662557 
115 39 2 -0.806 0.400417 0.749207 0.386725 
116 39 1 0.403 0.448373 0.746102 0.37877 
117 39 1 0.403 0.397519 0.796355 0.399008 
168 56 1 0.403 0.460366 0.600684 0.46514 
253 85 2 -0.806 0.0598865 0.678591 0.31233 
254 85 1 0.403 0.0508727 0.630974 0.312151 
255 85 1 0.403 0.10074 0.678089 0.285555 
256 86 2 -0.806 0.184671 0.658276 0.258193 
257 86 1 0.403 0.22083 0.687285 0.273038 
258 86 1 0.403 0.203803 0.615595 0.272035 
259 87 2 -0.806 0.374187 0.635567 0.224634 
260 87 1 0.403 0.419072 0.654578 0.221407 
261 87 1 0.403 0.385946 0.593611 0.246546 
262 88 2 -0.806 0.390233 0.941545 0.271665 
263 88 1 0.403 0.364758 0.980204 0.256342 
264 88 1 0.403 0.434088 0.956767 0.25748 
265 89 2 -0.806 0.392676 0.887395 0.395785 
266 89 1 0.403 0.39254 0.905294 0.349863 
267 89 1 0.403 0.366081 0.922386 0.416966 
268 90 2 -0.806 0.229017 0.845588 0.417664 
269 90 1 0.403 0.257186 0.819195 0.447791 
270 90 1 0.403 0.202085 0.809663 0.398543 
271 91 2 -0.806 0.301658 0.712522 0.306857 
272 91 1 0.403 0.340276 0.72557 0.33403 
273 91 1 0.403 0.324576 0.685352 0.272877 
274 92 2 -0.806 0.09499 0.908292 0.339892 
275 92 1 0.403 0.0881573 0.898321 0.387768 
276 92 1 0.403 0.133361 0.937833 0.34366 
277 93 2 -0.806 0.222999 0.956092 0.347388 
278 93 1 0.403 0.229046 0.914756 0.372984 
279 93 1 0.403 0.259833 0.981049 0.367206 
78 26 1 0.403 0.345489 0.506106 0.0219623 
318 106 1 0.403 0.0729433 0.501503 0.301685 
28 10 2 -0.806 0.259161 0.515194 0.159414 
283 95 2 -0.806 0.146081 0.751878 0.378685 
284 95 1 0.403 0.165717 0.71565 0.404807 
285 95 1 0.403 0.103208 0.731431 0.36815 
286 96 2 -0.806 0.236459 0.668453 0.423166 
287 96 1 0.403 0.263197 0.684257 0.38535 
288 96 1 0.403 0.256468 0.693981 0.460149 
289 97 2 -0.806 0.382646 0.636489 0.472526 
290 97 1 0.403 0.358945 0.606624 0.441934 
291 97 1 0.403 0.383467 0.677296 0.445899 
292 98 2 -0.806 0.349508 0.535435 0.38292 
740 247 1 0.403 0.468985 0.502951 0.131353 
294 98 1 0.403 0.382548 0.531983 0.346785 
295 99 2 -0.806 0.156002 0.813983 0.260911 
296 99 1 0.403 0.158066 0.783629 0.29922 
297 99 1 0.403 0.131475 0.849832 0.282757 
298 100 2 -0.806 0.310061 0.84039 0.231887 
299 100 1 0.403 0.303907 0.807421 0.267271 
300 100 1 0.403 0.343358 0.869783 0.251853 
301 101 2 -0.806 0.149867 0.569415 0.407832 
302 101 1 0.403 0.179351 0.534786 0.425123 
303 101 1 0.403 0.179142 0.607684 0.41539 
306 102 1 0.403 0.0253258 0.750084 0.469188 
391 131 2 -0.806 0.249458 0.545051 0.291379 
317 106 1 0.403 0.0908037 0.553892 0.351427 
319 107 2 -0.806 0.217312 0.937868 0.213532 
320 107 1 0.403 0.216806 0.948787 0.261744 
321 107 1 0.403 0.243577 0.896942 0.215935 
322 108 2 -0.806 0.113369 0.881625 0.475779 
324 108 1 0.403 0.157224 0.868963 0.459088 
392 131 1 0.403 0.229315 0.5037 0.307397 
326 109 1 0.403 0.0883288 0.534242 0.462167 
393 131 1 0.403 0.283793 0.549591 0.326142 
732 244 1 0.403 0.107123 0.871979 0.132781 
466 156 2 -0.806 0.403685 0.753221 0.0619152 
467 156 1 0.403 0.3992 0.741595 0.014019 
468 156 1 0.403 0.404016 0.70777 0.0798832 
469 157 2 -0.806 0.402812 0.624466 0.0902592 
470 157 1 0.403 0.380138 0.623984 0.133986 
471 157 1 0.403 0.442871 0.59954 0.102523 
48 16 1 0.403 0.491333 0.982621 0.17332 
702 234 1 0.403 0.028827 0.892542 0.207867 
701 234 1 0.403 0.0333421 0.888722 0.282313 
475 159 2 -0.806 0.1457 0.537047 0.0921443 
476 159 1 0.403 0.189483 0.534297 0.113525 
477 159 1 0.403 0.136455 0.584268 0.0997728 
490 164 2 -0.806 0.451296 0.972652 0.0988977 
491 164 1 0.403 0.445071 0.931609 0.0732853 
85 29 2 -0.806 0.495921 0.676565 0.20835 
493 165 2 -0.806 0.281468 0.796426 0.108993 
494 165 1 0.403 0.294749 0.813765 0.153058 
495 165 1 0.403 0.324116 0.780295 0.0928378 
496 166 2 -0.806 0.446805 0.871338 0.0157165 
498 166 1 0.403 0.417985 0.834876 0.0303146 
499 167 2 -0.806 0.150844 0.791997 0.128971 
500 167 1 0.403 0.157091 0.797141 0.177831 
501 167 1 0.403 0.197375 0.794048 0.114216 
502 168 2 -0.806 0.123559 0.66086 0.138372 
503 168 1 0.403 0.127972 0.707431 0.1244 
504 168 1 0.403 0.149905 0.662788 0.179951 
730 244 2 -0.806 0.097885 0.915031 0.153792 
731 244 1 0.403 0.140496 0.921366 0.176873 
316 106 2 -0.806 0.0567285 0.544604 0.317223 
700 234 2 -0.806 0.00405341 0.873748 0.245824 
675 225 1 0.403 0.0451705 0.635309 0.159001 
91 31 2 -0.806 0.4299 0.526419 0.276519 
30 10 1 0.403 0.260221 0.539446 0.202284 
833 278 1 0.403 0.387184 0.596779 0.00480048 
488 163 1 0.403 0.488121 0.777385 0.10181 
492 164 1 0.403 0.409006 0.993997 0.0868897 
110 37 1 0.403 0.477761 0.91056 0.418506 
305 102 1 0.403 0.0759742 0.795878 0.498357 
92 31 1 0.403 0.475862 0.537807 0.288315 
325 109 2 -0.806 0.0732829 0.5058 0.499095 
603 201 1 0.403 0.450521 0.750629 0.922326 
735 245 1 0.403 0.003696 0.629456 0.536857 
314 105 1 0.403 0.445529 0.7932 0.52233 
307 103 2 -0.806 0.184929 0.634108 0.632172 
308 103 1 0.403 0.192489 0.630485 0.680541 
309 103 1 0.403 0.156385 0.673419 0.631841 
597 199 1 0.403 0.493218 0.928112 0.787827 
311 104 1 0.403 0.260701 0.776038 0.548345 
656 219 1 0.403 0.399094 0.984632 0.711074 
313 105 2 -0.806 0.405 0.793019 0.549982 
315 105 1 0.403 0.422262 0.767783 0.588412 
323 108 1 0.403 0.127583 0.906145 0.515775 
412 138 2 -0.806 0.370971 0.620734 0.611277 
413 138 1 0.403 0.417657 0.607807 0.614359 
414 138 1 0.403 0.367726 0.62834 0.562709 
415 139 2 -0.806 0.414537 0.925097 0.558909 
416 139 1 0.403 0.451908 0.910829 0.58713 
417 139 1 0.403 0.399184 0.880636 0.546006 
800 267 1 0.403 0.300251 0.957351 0.992706 
497 166 1 0.403 0.472663 0.847222 0.981424 
421 141 2 -0.806 0.246178 0.531491 0.574275 
422 141 1 0.403 0.227663 0.510776 0.614862 
423 141 1 0.403 0.232131 0.577268 0.584056 
424 142 2 -0.806 0.0744979 0.54214 0.663226 
425 142 1 0.403 0.117439 0.519239 0.662702 
426 142 1 0.403 0.0816426 0.575806 0.628246 
439 147 2 -0.806 0.42637 0.906569 0.735025 
440 147 1 0.403 0.457113 0.896804 0.6977 
441 147 1 0.403 0.409742 0.861114 0.741717 
442 148 2 -0.806 0.406498 0.777368 0.752445 
443 148 1 0.403 0.447056 0.773349 0.779603 
444 148 1 0.403 0.423776 0.757073 0.710927 
445 149 2 -0.806 0.475758 0.732737 0.647607 
446 149 1 0.403 0.477715 0.684085 0.647059 
448 150 2 -0.806 0.220824 0.811498 0.618296 
449 150 1 0.403 0.238839 0.803384 0.662916 
450 150 1 0.403 0.178744 0.787235 0.623057 
451 151 2 -0.806 0.114914 0.745181 0.660896 
452 151 1 0.403 0.117148 0.769426 0.703891 
453 151 1 0.403 0.0679946 0.753414 0.650676 
342 114 1 0.403 0.328274 0.503016 0.56345 
734 245 1 0.403 0.0648257 0.669609 0.542858 
519 173 1 0.403 0.428573 0.504563 0.931842 
544 182 2 -0.806 0.361688 0.634455 0.855305 
545 182 1 0.403 0.365389 0.606542 0.814958 
546 182 1 0.403 0.327708 0.664597 0.837731 
547 183 2 -0.806 0.486538 0.518224 0.789896 
549 183 1 0.403 0.453777 0.505441 0.755651 
550 184 2 -0.806 0.210803 0.621609 0.767335 
551 184 1 0.403 0.252975 0.599754 0.755932 
552 184 1 0.403 0.229109 0.665201 0.779473 
553 185 2 -0.806 0.153911 0.504976 0.843055 
554 185 1 0.403 0.18597 0.534751 0.822453 
555 185 1 0.403 0.113527 0.530098 0.833494 
598 200 2 -0.806 0.294318 0.813469 0.896949 
599 200 1 0.403 0.286522 0.846679 0.932166 
600 200 1 0.403 0.332988 0.790512 0.915659 
601 201 2 -0.806 0.404008 0.738612 0.930054 
602 201 1 0.403 0.399992 0.700275 0.89984 
604 202 2 -0.806 0.234437 0.896596 0.809836 
605 202 1 0.403 0.255627 0.862568 0.837851 
606 202 1 0.403 0.271482 0.928067 0.808167 
607 203 2 -0.806 0.129752 0.823569 0.766826 
608 203 1 0.403 0.167083 0.853209 0.775948 
609 203 1 0.403 0.100534 0.835506 0.804082 
834 278 1 0.403 0.368119 0.592796 0.931177 
715 239 2 -0.806 0.0751525 0.597364 0.785103 
716 239 1 0.403 0.118756 0.617686 0.778622 
717 239 1 0.403 0.0696998 0.576249 0.740881 
718 240 2 -0.806 0.332917 0.580494 0.733114 
719 240 1 0.403 0.354014 0.538165 0.721553 
720 240 1 0.403 0.340875 0.603095 0.689795 
832 278 2 -0.806 0.378697 0.563885 0.969512 
310 104 2 -0.806 0.283187 0.76346 0.506417 
723 241 1 0.403 0.343463 0.974156 0.568293 
724 242 2 -0.806 0.191011 0.936192 0.573446 
725 242 1 0.403 0.20177 0.892412 0.592146 
726 242 1 0.403 0.234897 0.956981 0.577367 
596 199 1 0.403 0.49823 0.958824 0.856332 
822 274 1 0.403 0.375571 0.940808 0.801743 
733 245 2 -0.806 0.0493101 0.624492 0.553048 
327 109 1 0.403 0.0599225 0.541441 0.529942 
312 104 1 0.403 0.329307 0.769634 0.521215 
799 267 2 -0.806 0.278485 0.933825 0.955621 
368 123 1 0.403 0.458792 0.99384 0.532113 
801 267 1 0.403 0.304449 0.950413 0.917535 
802 268 2 -0.806 0.156064 0.954086 0.901427 
803 268 1 0.403 0.191555 0.949341 0.934906 
804 268 1 0.403 0.180672 0.937748 0.862163 
805 269 2 -0.806 0.0573705 0.868241 0.876643 
806 269 1 0.403 0.0578654 0.843736 0.918691 
807 269 1 0.403 0.0859236 0.905827 0.888856 
808 270 2 -0.806 0.448573 0.974152 0.923232 
809 270 1 0.403 0.445934 0.944616 0.962159 
817 273 2 -0.806 0.287555 0.727759 0.795023 
818 273 1 0.403 0.280449 0.760569 0.830736 
819 273 1 0.403 0.327306 0.746895 0.77401 
820 274 2 -0.806 0.348644 0.958534 0.838441 
821 274 1 0.403 0.384429 0.975839 0.867054 
304 102 2 -0.806 0.0587283 0.751117 0.504889 
721 241 2 -0.806 0.308909 0.999601 0.591658 
11 4 1 0.403 0.60659 0.139709 0.0750473 
780 260 1 0.403 0.687451 0.213868 0.0328923 
169 57 2 -0.806 0.592855 0.190193 0.250043 
170 57 1 0.403 0.548479 0.208996 0.257363 
171 57 1 0.403 0.605051 0.216383 0.210465 
172 58 2 -0.806 0.728508 0.1819 0.2669 
173 58 1 0.403 0.728397 0.230228 0.261321 
174 58 1 0.403 0.680425 0.175571 0.269696 
175 59 2 -0.806 0.568112 0.0767876 0.31279 
176 59 1 0.403 0.548437 0.0471421 0.279392 
177 59 1 0.403 0.581592 0.113691 0.283561 
178 60 2 -0.806 0.941495 0.107304 0.328392 
179 60 1 0.403 0.897678 0.0937609 0.31151 
180 60 1 0.403 0.928252 0.149371 0.349173 
181 61 2 -0.806 0.873849 0.385761 0.461828 
182 61 1 0.403 0.826117 0.383647 0.472497 
183 61 1 0.403 0.883059 0.431192 0.477265 
461 154 1 0.403 0.7314 0.476169 0.0345854 
246 82 1 0.403 0.687356 0.456024 0.314943 
186 62 1 0.403 0.959443 0.33166 0.405456 
187 63 2 -0.806 0.744396 0.371842 0.475794 
10 4 2 -0.806 0.559377 0.151029 0.0796583 
189 63 1 0.403 0.718973 0.355955 0.436997 
190 64 2 -0.806 0.888984 0.205622 0.406056 
191 64 1 0.403 0.902408 0.188254 0.450068 
192 64 1 0.403 0.842572 0.216119 0.416809 
193 65 2 -0.806 0.528638 0.399415 0.398287 
711 237 1 0.403 0.644946 0.484186 0.167415 
195 65 1 0.403 0.532712 0.35325 0.413173 
196 66 2 -0.806 0.633309 0.470648 0.447751 
197 66 1 0.403 0.590478 0.45679 0.429093 
198 66 1 0.403 0.633966 0.440765 0.486773 
199 67 2 -0.806 0.553092 0.269113 0.429726 
200 67 1 0.403 0.58204 0.251754 0.465589 
201 67 1 0.403 0.536911 0.226834 0.411268 
202 68 2 -0.806 0.676547 0.306742 0.377459 
203 68 1 0.403 0.629215 0.298881 0.384254 
204 68 1 0.403 0.677954 0.311282 0.328277 
205 69 2 -0.806 0.762991 0.226702 0.442665 
206 69 1 0.403 0.733016 0.254815 0.416138 
212 71 1 0.403 0.764777 0.143541 0.450469 
162 54 1 0.403 0.736924 0.0373448 0.166156 
827 276 1 0.403 0.509116 0.015782 0.050296 
211 71 2 -0.806 0.776895 0.0964142 0.448843 
213 71 1 0.403 0.733808 0.0770033 0.437014 
214 72 2 -0.806 0.978738 0.0456347 0.440341 
215 72 1 0.403 0.957433 0.0813464 0.465768 
216 72 1 0.403 0.965337 0.0580828 0.394533 
217 73 2 -0.806 0.690181 0.307871 0.2391 
218 73 1 0.403 0.720267 0.344138 0.226668 
219 73 1 0.403 0.661469 0.307241 0.199526 
220 74 2 -0.806 0.829447 0.379643 0.332336 
221 74 1 0.403 0.84859 0.384154 0.377392 
222 74 1 0.403 0.789309 0.406525 0.338793 
223 75 2 -0.806 0.661755 0.0513437 0.403361 
224 75 1 0.403 0.623607 0.0579213 0.373414 
225 75 1 0.403 0.639547 0.0565444 0.447037 
226 76 2 -0.806 0.812284 0.0911963 0.319448 
227 76 1 0.403 0.806996 0.0949178 0.36837 
228 76 1 0.403 0.783641 0.127792 0.304675 
241 81 2 -0.806 0.59882 0.443801 0.293891 
243 81 1 0.403 0.573255 0.419801 0.328158 
244 82 2 -0.806 0.724945 0.462207 0.34562 
245 82 1 0.403 0.699868 0.465788 0.387809 
330 110 1 0.403 0.557511 0.295771 0.139117 
329 110 1 0.403 0.575248 0.228182 0.11393 
242 81 1 0.403 0.583576 0.488857 0.304758 
778 260 2 -0.806 0.675341 0.259928 0.0223308 
670 224 2 -0.806 0.95586 0.377997 0.126756 
671 224 1 0.403 0.949283 0.399845 0.170618 
338 113 1 0.403 0.526878 0.121547 0.372418 
676 226 2 -0.806 0.691568 0.132368 0.058376 
677 226 1 0.403 0.706298 0.0965867 0.0283464 
678 226 1 0.403 0.723317 0.125158 0.0952687 
679 227 2 -0.806 0.947809 0.251434 0.16621 
680 227 1 0.403 0.930594 0.258356 0.212191 
681 227 1 0.403 0.952193 0.297832 0.152242 
682 228 2 -0.806 0.896623 0.273812 0.287218 
683 228 1 0.403 0.893997 0.248766 0.32925 
684 228 1 0.403 0.872174 0.313729 0.30039 
685 229 2 -0.806 0.954714 0.430754 0.246628 
704 235 1 0.403 0.715007 0.338726 0.0200104 
687 229 1 0.403 0.939533 0.475288 0.258302 
328 110 2 -0.806 0.596428 0.266588 0.135737 
779 260 1 0.403 0.648779 0.269377 0.0624785 
691 231 2 -0.806 0.9116 0.123432 0.162035 
692 231 1 0.403 0.95339 0.106099 0.179468 
693 231 1 0.403 0.92433 0.170109 0.157574 
694 232 2 -0.806 0.778006 0.112527 0.159093 
695 232 1 0.403 0.7696 0.139238 0.199417 
696 232 1 0.403 0.826897 0.112795 0.159353 
703 235 2 -0.806 0.727278 0.38386 0.0336488 
99 33 1 0.403 0.770241 0.0165288 0.306496 
705 235 1 0.403 0.76967 0.373096 0.0554603 
46 16 2 -0.806 0.501302 0.00240461 0.21758 
707 236 1 0.403 0.748255 0.470439 0.193871 
686 229 1 0.403 0.99856 0.43047 0.267172 
709 237 2 -0.806 0.60221 0.460823 0.162361 
710 237 1 0.403 0.599219 0.444479 0.208916 
12 4 1 0.403 0.542088 0.11986 0.0457765 
712 238 2 -0.806 0.600027 0.42245 0.0330558 
713 238 1 0.403 0.599484 0.435628 0.0806868 
714 238 1 0.403 0.645904 0.406646 0.0302162 
742 248 2 -0.806 0.785905 0.394877 0.203756 
743 248 1 0.403 0.816747 0.389526 0.241542 
744 248 1 0.403 0.81065 0.373634 0.167271 
745 249 2 -0.806 0.838212 0.335429 0.0921764 
746 249 1 0.403 0.852465 0.289377 0.0931705 
747 249 1 0.403 0.881949 0.357086 0.0919367 
828 276 1 0.403 0.567695 0.0118542 0.00358546 
98 33 1 0.403 0.705976 0.0089859 0.34265 
207 69 1 0.403 0.756547 0.246991 0.48713 
826 276 2 -0.806 0.529373 0.0403866 0.0131869 
24 8 1 0.403 0.524339 0.391426 0.0180856 
209 70 1 0.403 0.960869 0.130631 0.560426 
816 272 1 0.403 0.742967 0.0719465 0.930588 
229 77 2 -0.806 0.560398 0.288461 0.615829 
230 77 1 0.403 0.528501 0.254233 0.629413 
231 77 1 0.403 0.586488 0.261816 0.584135 
232 78 2 -0.806 0.627882 0.214273 0.527493 
233 78 1 0.403 0.626571 0.165605 0.525973 
234 78 1 0.403 0.673008 0.221069 0.544921 
235 79 2 -0.806 0.747908 0.253114 0.576513 
236 79 1 0.403 0.736014 0.275148 0.619082 
237 79 1 0.403 0.795393 0.264146 0.577217 
238 80 2 -0.806 0.875507 0.296042 0.56883 
239 80 1 0.403 0.88183 0.323369 0.528588 
240 80 1 0.403 0.92032 0.277584 0.573708 
247 83 2 -0.806 0.633756 0.387567 0.553457 
248 83 1 0.403 0.604503 0.356934 0.577602 
249 83 1 0.403 0.645283 0.417961 0.590181 
250 84 2 -0.806 0.615613 0.081076 0.526318 
251 84 1 0.403 0.642162 0.0666934 0.565084 
404 135 1 0.403 0.955377 0.44561 0.648878 
407 136 1 0.403 0.722552 0.465757 0.657229 
795 265 1 0.403 0.873434 0.0282018 0.894924 
505 169 2 -0.806 0.804646 0.432728 0.8297 
506 169 1 0.403 0.780547 0.464148 0.858305 
507 169 1 0.403 0.779943 0.391763 0.838646 
508 170 2 -0.806 0.927511 0.373921 0.813728 
509 170 1 0.403 0.923622 0.373221 0.764589 
510 170 1 0.403 0.888963 0.40094 0.825137 
511 171 2 -0.806 0.753682 0.308888 0.827906 
512 171 1 0.403 0.790337 0.28063 0.841365 
513 171 1 0.403 0.716527 0.284342 0.847854 
514 172 2 -0.806 0.66232 0.232365 0.888027 
515 172 1 0.403 0.65994 0.244475 0.935868 
516 172 1 0.403 0.615311 0.235346 0.875801 
556 186 2 -0.806 0.753045 0.132031 0.861239 
557 186 1 0.403 0.72144 0.167354 0.87239 
558 186 1 0.403 0.729052 0.111934 0.823278 
559 187 2 -0.806 0.876007 0.080544 0.82823 
560 187 1 0.403 0.834324 0.104345 0.836432 
561 187 1 0.403 0.903896 0.116047 0.811148 
562 188 2 -0.806 0.679703 0.0694771 0.770069 
563 188 1 0.403 0.678705 0.0210887 0.772601 
564 188 1 0.403 0.635058 0.0798208 0.78689 
565 189 2 -0.806 0.559446 0.106853 0.817061 
566 189 1 0.403 0.522794 0.0949709 0.847555 
567 189 1 0.403 0.559524 0.154593 0.825887 
610 204 2 -0.806 0.795112 0.447149 0.698066 
568 190 2 -0.806 0.529577 0.239487 0.840694 
612 204 1 0.403 0.799949 0.445456 0.747398 
613 205 2 -0.806 0.904866 0.37383 0.679394 
614 205 1 0.403 0.897514 0.3403 0.64458 
615 205 1 0.403 0.863011 0.397949 0.675697 
616 206 2 -0.806 0.738478 0.322446 0.690876 
617 206 1 0.403 0.74012 0.314576 0.739402 
618 206 1 0.403 0.756125 0.367408 0.689338 
619 207 2 -0.806 0.512894 0.330779 0.732606 
620 207 1 0.403 0.535873 0.330057 0.68907 
621 207 1 0.403 0.537845 0.296401 0.756036 
637 213 2 -0.806 0.701333 0.059737 0.630397 
638 213 1 0.403 0.74728 0.0641041 0.614526 
639 213 1 0.403 0.705638 0.0773739 0.676082 
640 214 2 -0.806 0.825141 0.0667578 0.569655 
641 214 1 0.403 0.80553 0.0717932 0.5247 
642 214 1 0.403 0.852882 0.0276975 0.561145 
210 70 1 0.403 0.889068 0.128837 0.545512 
569 190 1 0.403 0.508362 0.278583 0.860952 
403 135 2 -0.806 0.960008 0.485183 0.620992 
646 216 2 -0.806 0.517368 0.0629393 0.694907 
647 216 1 0.403 0.54947 0.0280976 0.683695 
648 216 1 0.403 0.533287 0.0744938 0.740145 
252 84 1 0.403 0.57299 0.0596172 0.535686 
188 63 1 0.403 0.709184 0.371709 0.509739 
814 272 2 -0.806 0.740295 0.0416892 0.969091 
406 136 2 -0.806 0.684914 0.482802 0.631299 
815 272 1 0.403 0.78405 0.0208877 0.964727 
774 258 1 0.403 0.97612 0.0198551 0.747273 
208 70 2 -0.806 0.93031 0.143326 0.523647 
611 204 1 0.403 0.815575 0.490916 0.690642 
773 258 1 0.403 0.90794 0.0104501 0.773174 
473 158 1 0.403 0.599082 0.483153 0.962904 
145 49 2 -0.806 0.518558 0.804185 0.484006 
777 259 1 0.403 0.938292 0.987255 0.491617 
87 29 1 0.403 0.536098 0.656423 0.18985 
88 30 2 -0.806 0.623306 0.674828 0.166549 
89 30 1 0.403 0.615637 0.717893 0.187667 
90 30 1 0.403 0.670095 0.669341 0.178314 
282 94 1 0.403 0.992873 0.717262 0.361466 
167 56 1 0.403 0.531146 0.61097 0.484422 
94 32 2 -0.806 0.8918 0.691618 0.2847 
95 32 1 0.403 0.89431 0.643411 0.287776 
96 32 1 0.403 0.851979 0.700076 0.310944 
97 33 2 -0.806 0.730519 0.988475 0.30541 
459 153 1 0.403 0.949754 0.594901 0.0260685 
281 94 1 0.403 0.946274 0.772029 0.379404 
100 34 2 -0.806 0.907529 0.839335 0.334987 
101 34 1 0.403 0.940042 0.85692 0.302876 
102 34 1 0.403 0.871289 0.830257 0.303007 
103 35 2 -0.806 0.751874 0.783883 0.419965 
104 35 1 0.403 0.72587 0.81328 0.390575 
105 35 1 0.403 0.757413 0.746658 0.388642 
106 36 2 -0.806 0.816095 0.817471 0.240926 
107 36 1 0.403 0.798814 0.775838 0.223415 
108 36 1 0.403 0.808307 0.846447 0.202271 
109 37 2 -0.806 0.515898 0.940378 0.413576 
669 223 1 0.403 0.952614 0.582521 0.228535 
111 37 1 0.403 0.549165 0.917041 0.440763 
112 38 2 -0.806 0.682109 0.87312 0.34952 
113 38 1 0.403 0.642904 0.882117 0.321858 
114 38 1 0.403 0.711463 0.907195 0.330455 
118 40 2 -0.806 0.533851 0.746367 0.363297 
119 40 1 0.403 0.565455 0.70961 0.368649 
120 40 1 0.403 0.548494 0.762251 0.319226 
121 41 2 -0.806 0.632206 0.657654 0.366135 
122 41 1 0.403 0.674726 0.673388 0.348432 
123 41 1 0.403 0.648795 0.635705 0.406972 
741 247 1 0.403 0.540928 0.513564 0.140598 
156 52 1 0.403 0.814267 0.840765 0.440107 
736 246 2 -0.806 0.753824 0.699014 0.186729 
127 43 2 -0.806 0.679407 0.592426 0.474646 
465 155 1 0.403 0.567709 0.573838 0.0743834 
129 43 1 0.403 0.661042 0.548425 0.464116 
489 163 1 0.403 0.509983 0.844425 0.0806564 
759 253 1 0.403 0.943749 0.67244 0.454653 
132 44 1 0.403 0.911523 0.552402 0.494867 
133 45 2 -0.806 0.566871 0.787719 0.234041 
134 45 1 0.403 0.553419 0.801374 0.188458 
135 45 1 0.403 0.571401 0.832121 0.254 
136 46 2 -0.806 0.793654 0.894483 0.130228 
137 46 1 0.403 0.760078 0.927935 0.142222 
138 46 1 0.403 0.830339 0.923528 0.118956 
139 47 2 -0.806 0.548051 0.559789 0.328896 
140 47 1 0.403 0.529823 0.565101 0.374724 
141 47 1 0.403 0.579015 0.597293 0.330431 
142 48 2 -0.806 0.755352 0.687374 0.323031 
143 48 1 0.403 0.752922 0.693055 0.27395 
144 48 1 0.403 0.771263 0.641102 0.324316 
147 49 1 0.403 0.527243 0.781128 0.441531 
155 52 1 0.403 0.871338 0.871898 0.405885 
157 53 2 -0.806 0.566193 0.90851 0.290481 
158 53 1 0.403 0.547039 0.924649 0.332947 
159 53 1 0.403 0.550013 0.943339 0.2603 